   * xtb version 6.5.1 (conda-forge) compiled by 'runner@Mac-1672869950218.local' on 2023-01-04
          program call               : /Users/nickhattrup/miniconda3/envs/MolDyML/bin/xtb C10H10_opt_xtb.xyz --chrg 0 --uhf 0 --opt

   ID    Z sym.   atoms
    1    6 C      1-10
    2    1 H      11-20

          :  Hamiltonian                  GFN2-xTB          :
 * total energy  :   -26.3974417 Eh     change       -0.1472173E-09 Eh
 * total energy  :   -26.4225692 Eh     change       -0.2512751E-01 Eh
 * total energy  :   -26.4304439 Eh     change       -0.7874681E-02 Eh
 * total energy  :   -26.4314393 Eh     change       -0.9954108E-03 Eh
 * total energy  :   -26.4315930 Eh     change       -0.1536705E-03 Eh
 * total energy  :   -26.4316416 Eh     change       -0.4866069E-04 Eh
 * total energy  :   -26.4316568 Eh     change       -0.1516716E-04 Eh
 * total energy  :   -26.4316622 Eh     change       -0.5434355E-05 Eh
 * total energy  :   -26.4316636 Eh     change       -0.1403181E-05 Eh
   *** GEOMETRY OPTIMIZATION CONVERGED AFTER 9 ITERATIONS ***

 final structure:
================
20
 xtb: 6.5.1 (conda-forge)
C            0.82498114951024       -0.34162684557342        1.54665816535808
C           -0.49646508821427       -0.36553634251210        1.68278220921103
C           -1.48302783579800       -0.13019009958297        0.62633027001647
C           -1.26185697953515        0.88820220262295       -0.47950142030743
C           -1.26756449555938       -0.59611975950296       -0.80407338483411
C           -0.05896986117379       -1.31113468454287       -1.21999512394419
C            1.17483365103679       -1.09848595111524       -0.77538118206883
C            1.54282049610680       -0.06166331909948        0.25283993027349
C            1.18475267774679        1.31238571259244       -0.24852490038680
C           -0.04643042755286        1.70161036204873       -0.56120738290885
H            1.44646658578994       -0.53395078782224        2.41034915790146
H           -0.91788056231732       -0.57863663505890        2.65726829808194
H           -2.50732965036595       -0.20266616856806        0.97375722453787
H           -2.15432857728283        1.42080687098210       -0.78738680389502
H           -2.16391553500245       -0.94464407000961       -1.30436261905040
H           -0.22129995455610       -2.08225640127036       -1.96344545655650
H            1.98515171590500       -1.69910443166309       -1.16507204604682
H            2.62006647417669       -0.10453066225684        0.42904619373368
H            2.00094020296520        2.01377808744077       -0.35429846482556
H           -0.20074398587935        2.71376292289113       -0.91588266428950

          :  Hamiltonian                  GFN2-xTB          :
         :: total energy             -26.431663627381 Eh    ::
         :: gradient norm              0.000618212036 Eh/a0 ::
         :: HOMO-LUMO gap              4.216975311612 eV    ::
         :: SCC energy               -26.909184818174 Eh    ::
         :: -> dispersion             -0.019138185512 Eh    ::
         :: repulsion energy           0.477413612575 Eh    ::

    * Orbital Energies and Occupations

         #    Occupation            Energy/Eh            Energy/eV
      -------------------------------------------------------------
         1        2.0000           -0.6528206             -17.7642
       ...           ...                  ...                  ...
        13        2.0000           -0.4980402             -13.5524
        14        2.0000           -0.4980137             -13.5516
        15        2.0000           -0.4616119             -12.5611
        16        2.0000           -0.4615948             -12.5606
        17        2.0000           -0.4556968             -12.4001
        18        2.0000           -0.4531354             -12.3304
        19        2.0000           -0.4530647             -12.3285
        20        2.0000           -0.4322853             -11.7631
        21        2.0000           -0.4322508             -11.7621
        22        2.0000           -0.4251963             -11.5702
        23        2.0000           -0.4020251             -10.9397
        24        2.0000           -0.3670158              -9.9870
        25        2.0000           -0.3669638              -9.9856 (HOMO)
        26                         -0.2119928              -5.7686 (LUMO)
        27                         -0.1981496              -5.3919
        28                         -0.1981337              -5.3915
        29                         -0.0052437              -0.1427
        30                          0.0770339               2.0962
        31                          0.0866872               2.3589
        32                          0.1049463               2.8557
        33                          0.1050243               2.8579
        34                          0.1165422               3.1713
        35                          0.1180530               3.2124
        36                          0.1183026               3.2192
       ...                                ...                  ...
        50                          0.6372675              17.3409
      -------------------------------------------------------------
                  HL-Gap            0.1549710 Eh            4.2170 eV

     #   Z          covCN         q      C6AA      α(0)
     1   6 C        2.900    -0.035    28.880     8.811
     2   6 C        2.889    -0.036    28.883     8.811
     3   6 C        3.860    -0.012    20.749     6.478
     4   6 C        3.860    -0.012    20.748     6.478
     5   6 C        3.860    -0.012    20.748     6.478
     6   6 C        2.889    -0.036    28.882     8.811
     7   6 C        2.900    -0.035    28.880     8.811
     8   6 C        3.864    -0.008    20.680     6.467
     9   6 C        2.900    -0.035    28.879     8.811
    10   6 C        2.889    -0.036    28.882     8.811
    11   1 H        0.925     0.024     2.675     2.558
    12   1 H        0.925     0.024     2.677     2.559
    13   1 H        0.925     0.028     2.617     2.530
    14   1 H        0.925     0.028     2.616     2.529
    15   1 H        0.925     0.028     2.617     2.530
    16   1 H        0.925     0.024     2.679     2.559
    17   1 H        0.925     0.024     2.675     2.558
    18   1 H        0.924     0.030     2.583     2.513
    19   1 H        0.925     0.024     2.675     2.558
    20   1 H        0.925     0.024     2.679     2.560

Wiberg/Mayer (AO) data.
largest (>0.10) Wiberg bond orders for each atom

     #   Z sym  total        # sym  WBO       # sym  WBO       # sym  WBO
 ---------------------------------------------------------------------------
     1   6 C    3.990 --     2 C    1.870     8 C    0.983    11 H    0.969
     2   6 C    3.992 --     1 C    1.870     3 C    1.076    12 H    0.967
     3   6 C    3.949 --     2 C    1.076    13 H    0.973     4 C    0.892
                             5 C    0.892
     4   6 C    3.949 --    10 C    1.076    14 H    0.973     3 C    0.892
                             5 C    0.892
     5   6 C    3.949 --     6 C    1.076    15 H    0.973     4 C    0.892
                             3 C    0.892
     6   6 C    3.992 --     7 C    1.870     5 C    1.076    16 H    0.967
     7   6 C    3.990 --     6 C    1.870     8 C    0.983    17 H    0.969
     8   6 C    3.997 --     9 C    0.983     7 C    0.983     1 C    0.983
                            18 H    0.975
     9   6 C    3.990 --    10 C    1.871     8 C    0.983    19 H    0.969
    10   6 C    3.992 --     9 C    1.871     4 C    1.076    20 H    0.967
    11   1 H    0.999 --     1 C    0.969
    12   1 H    0.999 --     2 C    0.967
    13   1 H    0.999 --     3 C    0.973
    14   1 H    0.999 --     4 C    0.973
    15   1 H    0.999 --     5 C    0.973
    16   1 H    0.999 --     6 C    0.967
    17   1 H    0.999 --     7 C    0.969
    18   1 H    0.999 --     8 C    0.975
    19   1 H    0.999 --     9 C    0.969
    20   1 H    0.999 --    10 C    0.967
 ---------------------------------------------------------------------------

molecular dipole:
                 x           y           z       tot (Debye)
 q only:       -0.130       0.005      -0.021
   full:       -0.197       0.007      -0.032       0.509

           -------------------------------------------------
          | TOTAL ENERGY              -26.431663627381 Eh   |
          | GRADIENT NORM               0.000618212036 Eh/α |
          | HOMO-LUMO GAP               4.216975311612 eV   |
           -------------------------------------------------

 * finished run on 2023/03/16 at 12:37:18.081
